/*--------------------------------*- C++ -*----------------------------------*\
  =========                 |
  \\      /  F ield         | OpenFOAM: The Open Source CFD Toolbox
   \\    /   O peration     | Website:  https://openfoam.org
    \\  /    A nd           | Version:  7
     \\/     M anipulation  |
\*---------------------------------------------------------------------------*/
FoamFile
{
    version     2.0;
    format      ascii;
    class       Cloud<basicKinematicMPPICParcel>;
    location    "0.01/lagrangian/kinematicCloud";
    object      positions;
}
// * * * * * * * * * * * * * * * * * * * * * * * * * * * * * * * * * * * * * //

2873
(
(0.17358696 0.14643374 0.29372915 0.38625015) 24 183 1
(0.42434742 0.12690235 0.42634626 0.022403963) 33 112 1
(0.27989237 0.29670665 0.26068432 0.16271667) 29 148 1
(0.16793467 0.22782588 0.562201 0.042038451) 33 152 2
(0.11430987 0.45333412 0.13534507 0.29701094) 33 32 1
(0.50343344 0.095620234 0.34559783 0.055348495) 23 22 2
(0.018804323 0.054836966 0.75405323 0.17230549) 6 85 1
(0.17706541 0.20638342 0.1596194 0.45693177) 33 72 2
(0.13706522 0.0074002098 0.019936747 0.83559783) 19 178 1
(0.28372928 0.020496668 0.25104178 0.44473227) 29 108 1
(0.0073448011 0.53230586 0.32983696 0.13051238) 22 21 2
(0.024457384 0.36040765 0.45692865 0.15820632) 7 166 1
(0.096195644 0.16487967 0.68320652 0.05571817) 2 41 2
(0.26934821 0.0066302846 0.53926741 0.1847541) 37 196 2
(0.20706524 0.34798908 0.37881096 0.066134725) 9 168 2
(0.28022915 0.39070115 0.10037092 0.22869878) 1 0 2
(0.24206373 0.044403263 0.37875061 0.33478239) 8 87 1
(0.15630434 0.083206503 0.73675916 0.023730002) 5 124 2
(0.3688281 0.00053160635 0.61667231 0.013967982) 27 27 2
(0.73326087 0.071521739 0.067095624 0.12812177) 19 98 1
(0.18252943 0.0081463581 0.064513334 0.74481087) 1 160 2
(0.24070639 0.63807018 0.012011392 0.10921204) 1 1 1
(0.14760881 0.055422525 0.015066533 0.78190213) 6 165 1
(0.31340011 0.035098094 0.20969001 0.44181179) 0 119 2
(0.31904501 0.14341228 0.098586957 0.43895575) 38 38 1
(0.11793539 0.80437274 0.041358388 0.036333484) 27 106 2
(0.030992403 0.12510162 0.24445652 0.59944945) 32 31 2
(0.27125036 0.014103033 0.3366033 0.37804331) 33 33 2
(0.21978249 0.35667282 0.15336964 0.27017505) 36 115 2
(0.092826087 0.031633483 0.2388013 0.63673913) 39 198 1
(0.028695652 0.47679348 0.37496044 0.11955043) 4 83 1
(0.3551087 0.3611413 0.18832576 0.095424235) 23 62 1
(0.098211014 0.018394477 0.43483697 0.44855754) 7 6 2
(0.35369566 0.3195855 0.10345866 0.22326018) 27 146 1
(0.40478023 0.1223449 0.12663219 0.34624268) 1 80 2
(0.18532611 0.19288039 0.48327147 0.13852203) 10 89 1
(0.16032628 0.077605122 0.054949213 0.70711938) 2 121 1
(0.26315259 0.12113276 0.48441022 0.13130443) 15 134 1
(0.21813919 0.24150112 0.46676074 0.073598939) 8 127 2
(0.082790018 0.038441947 0.21076087 0.66800716) 20 20 1
(0.30369567 0.42606258 0.074674056 0.1955677) 36 75 2
(0.012374353 0.17914325 0.55568464 0.25279776) 1 0 2
(0.43695652 0.070163048 0.44555773 0.047322697) 18 137 2
(0.5938043 0.11273259 0.2220652 0.071397909) 2 41 2
(0.23827492 0.012311144 0.66495718 0.084456756) 0 200 2
(0.14258896 0.50652935 0.083858473 0.26702322) 0 119 2
(0.3571106 0.055955487 0.37486863 0.21206528) 5 4 1
(0.18565218 0.10658254 0.14918485 0.55858043) 28 107 2
(0.07755939 0.38763356 0.24554288 0.28926418) 15 14 2
(0.031195653 0.077445712 0.70594257 0.18541607) 27 146 2
(0.12563444 0.076095918 0.41749986 0.38076979) 34 34 1
(0.047500231 0.38076075 0.1792249 0.39251411) 24 63 1
(0.072826652 0.046113002 0.69910445 0.1819559) 28 147 1
(0.62419813 0.34654225 0.012085719 0.017173893) 18 17 1
(0.019988685 0.68875555 0.23114682 0.060108946) 14 13 1
(0.056522554 0.4932059 0.21664171 0.23362984) 14 133 2
(0.3249484 0.12747234 0.27127579 0.27630347) 27 26 1
(0.12278036 0.11143604 0.60491439 0.16086921) 15 15 2
(0.13945652 0.2238587 0.48041182 0.15627296) 22 141 2
(0.28654552 0.046129414 0.28178159 0.38554348) 32 31 1
(0.28434921 0.24044447 0.26890127 0.20630506) 8 127 1
(0.1572826 0.21478262 0.6259491 0.0019856783) 18 137 2
(0.17562931 0.39278307 0.14675058 0.28483705) 33 32 1
(0.16869565 0.23434783 0.5620451 0.034911423) 22 181 2
(0.28130434 0.42538008 0.12905893 0.16425666) 8 47 1
(0.39031653 0.20908095 0.21234211 0.18826041) 36 36 2
(0.068804487 0.61538036 0.28845497 0.02736018) 24 63 1
(0.17934778 0.15755438 0.31993243 0.34316541) 10 129 2
(0.21630397 0.32076162 0.14468185 0.31825255) 29 188 2
(0.029550615 0.44359475 0.47521675 0.051637882) 14 13 2
(0.41398661 0.51387626 0.057408868 0.014728261) 19 19 2
(0.14466229 0.27223402 0.25848409 0.3246196) 6 6 2
(0.051630599 0.29130772 0.15619206 0.50086962) 2 121 1
(0.11299402 0.4895356 0.38679348 0.010676902) 11 10 2
(0.08423913 0.57746571 0.084979945 0.25331522) 10 129 1
(0.71177988 0.07215349 0.18016309 0.035903537) 24 23 2
(0.33402131 0.076413874 0.12727221 0.46229261) 29 188 2
(0.022282916 0.59494548 0.17234265 0.21042895) 32 191 2
(0.67234862 0.019974803 0.24696465 0.060711925) 0 39 2
(0.1306001 0.59844935 0.21483743 0.056113122) 4 4 1
(0.33902174 0.0031288454 0.31486029 0.34298913) 3 162 1
(0.42556835 0.072976566 0.25482449 0.2466306) 9 9 2
(0.61105247 0.098528075 0.1506799 0.13973956) 0 39 2
(0.81392214 0.13274483 0.015510027 0.037823005) 1 160 1
(0.19152174 0.070869565 0.55350146 0.18410723) 21 180 2
(0.44021739 0.36326087 0.063583747 0.13293799) 21 180 2
(0.32576139 0.22543447 0.27076607 0.17803807) 5 164 2
(0.21391304 0.35766304 0.30064672 0.12777719) 12 51 1
(0.12276687 0.47138831 0.33448613 0.071358696) 3 3 2
(0.50368909 0.11436209 0.34565001 0.036298802) 9 88 1
(0.12841178 0.21823042 0.046856209 0.60650159) 36 36 2
(0.059783609 0.062473279 0.49143916 0.38630396) 4 163 1
(0.17597734 0.11559903 0.47493192 0.23349171) 12 171 2
(0.39456522 0.040434783 0.011069316 0.55393068) 12 91 1
(0.2755314 0.34864734 0.27929348 0.096527778) 38 37 2
(0.75586972 0.087554922 0.068531884 0.08804347) 37 196 1
(0.37206526 0.3898021 0.0038043251 0.23432831) 23 62 2
(0.40608763 0.046957535 0.037933629 0.50902121) 15 174 1
(0.47706522 0.013122043 0.29527174 0.214541) 16 55 2
(0.18152426 0.053097478 0.65326981 0.11210846) 8 167 2
(0.47754033 0.12351246 0.35824068 0.040706531) 13 12 1
(0.6 0.32729718 0.014931085 0.057771739) 23 142 1
(0.35130488 0.46304318 0.073850316 0.11180162) 33 192 2
(0.30326082 0.026259408 0.10222832 0.56825145) 7 86 2
(0.14565496 0.11836782 0.57472861 0.16124861) 26 25 2
(0.030543471 0.1492824 0.14456556 0.67560857) 25 104 2
(0.63902174 0.044673913 0.13872258 0.17758177) 12 91 1
(0.53608901 0.053636755 0.04340843 0.36686581) 30 189 2
(0.15641304 0.0030978261 0.47813828 0.36235086) 39 78 1
(0.23086957 0.6822993 0.047336957 0.039494179) 11 50 2
(0.13293478 0.20570652 0.16500644 0.49635226) 35 154 2
(0.36871453 0.062327517 0.23288043 0.33607752) 23 22 2
(0.27896463 0.22116986 0.19720247 0.30266304) 20 19 1
(0.017599208 0.23283083 0.23163043 0.51793953) 18 18 1
(0.19228254 0.19103187 0.58798917 0.028696417) 6 85 2
(0.49130574 0.12876155 0.33645525 0.043477461) 29 148 1
(0.30614872 0.42534955 0.13638216 0.13211957) 12 11 1
(0.061630435 0.22484218 0.37804348 0.33548391) 12 91 2
(0.3927176 0.083206415 0.13951084 0.38456514) 24 63 1
(0.3425 0.089072853 0.3451087 0.22331845) 4 83 2
(0.2199162 0.19591131 0.26536804 0.31880444) 37 36 1
(0.2917384 0.3715221 0.21065654 0.12608296) 25 144 2
(0.48728159 0.18084615 0.029534517 0.30233774) 34 193 1
(0.37326087 0.037336957 0.28632156 0.30308061) 12 131 2
(0.037838793 0.09765669 0.3674393 0.49706522) 20 19 1
(0.50347854 0.18279588 0.13176918 0.1819564) 32 191 1
(0.11473315 0.67948125 0.035350817 0.17043478) 11 11 2
(0.18250057 0.53852247 0.12087936 0.15809759) 37 196 1
(0.40630435 0.15413043 0.1113106 0.32825462) 11 50 1
(0.0079682665 0.56916803 0.14514631 0.27771739) 38 37 1
(0.12076061 0.24804339 0.01096229 0.62023372) 16 55 1
(0.27419763 0.21947727 0.12396739 0.38235771) 38 37 2
(0.41641332 0.19833792 0.29413094 0.091117812) 5 44 2
(0.25858663 0.45628035 0.24842397 0.036709052) 29 108 2
(0.25771739 0.20967391 0.311562 0.22104669) 23 62 1
(0.39434648 0.096269845 0.20847858 0.3009051) 8 87 2
(0.15746314 0.47740974 0.15757279 0.20755434) 10 9 1
(0.10717399 0.1781771 0.23461903 0.48002988) 26 65 2
(0.060777657 0.10058944 0.061948126 0.77668478) 3 2 1
(0.19673913 0.070993643 0.17878897 0.55347826) 19 138 1
(0.091413043 0.70657042 0.16076654 0.04125) 6 125 1
(0.0031521739 0.38532609 0.28446935 0.32705239) 23 182 2
(0.34491683 0.12607419 0.435 0.094008977) 10 10 1
(0.19478261 0.48250154 0.042552805 0.28016304) 38 157 1
(0.61728261 0.21448485 0.065243414 0.10298913) 19 178 1
(0.078478261 0.034957981 0.58173913 0.30482463) 20 99 2
(0.046630435 0.2475 0.35792825 0.34794131) 39 158 2
(0.028804345 0.16532609 0.68586352 0.12000605) 13 52 1
(0.64437892 0.074984297 0.07960405 0.20103273) 6 5 1
(0.35119574 0.065126555 0.2538587 0.329819) 37 76 2
(0.02336845 0.092283166 0.59590242 0.28844596) 25 144 2
(0.33293551 0.43614073 0.1445814 0.086342352) 34 113 1
(0.13065213 0.21826088 0.15849875 0.49258823) 5 84 1
(0.57130436 0.35831521 0.00019757832 0.070182851) 17 96 1
(0.041106067 0.37384897 0.13808827 0.44695669) 24 24 2
(0.6445651 0.10029712 0.13736576 0.11777202) 9 168 1
(0.22967391 0.2 0.022300983 0.5480251) 22 141 2
(0.28184781 0.11604239 0.25814243 0.34396737) 17 136 1
(0.02313082 0.50332586 0.39761938 0.075923944) 33 32 1
(0.18703307 0.71947259 0.028113899 0.065380435) 10 10 2
(0.11646494 0.48535558 0.33467283 0.063506649) 27 27 1
(0.43619616 0.2123835 0.24760797 0.10381237) 34 73 2
(0.079347892 0.44798092 0.15831538 0.31435581) 36 75 2
(0.23902243 0.21364123 0.35563379 0.19170255) 15 174 2
(0.51967401 0.30004083 0.036806819 0.14347834) 36 155 1
(0.19532607 0.17491488 0.33206521 0.29769383) 2 41 2
(0.13076089 0.022916243 0.54860547 0.2977174) 37 196 1
(0.035652174 0.13358588 0.74440325 0.086358696) 39 198 1
(0.16648204 0.41936699 0.012500531 0.40165044) 31 30 2
(0.10804412 0.78842271 0.065158784 0.03837439) 37 156 2
(0.0036961928 0.51488956 0.25882178 0.22259247) 8 127 2
(0.48608687 0.065953282 0.032361814 0.41559804) 9 168 1
(0.57902214 0.070434537 0.13287807 0.21766525) 6 165 2
(0.040433478 0.12472997 0.68693112 0.14790544) 12 171 2
(0.51181915 0.46066626 0.01496002 0.012554576) 33 32 1
(0.30869565 0.21798913 0.36812684 0.10518838) 21 140 2
(0.46537421 0.40769333 0.016086957 0.11084551) 22 22 1
(0.57677539 0.095796751 0.25114216 0.076285701) 34 33 2
(0.24586939 0.41545031 0.23949558 0.099184728) 12 171 1
(0.020086969 0.41452173 0.38674999 0.1786413) 35 34 1
(0.13173914 0.081358687 0.4094247 0.37747747) 18 97 1
(0.29554348 0.10701087 0.55936466 0.038080987) 21 180 2
(0.1671744 0.36592354 0.079949924 0.38695213) 28 107 1
(0.27195652 0.35434972 0.30651985 0.067173913) 21 140 1
(0.27898925 0.14930971 0.1035326 0.46816845) 37 37 1
(0.27478199 0.040109232 0.44525485 0.23985393) 28 187 2
(0.71113667 0.18954036 0.012717391 0.086605577) 31 31 1
(0.047568361 0.042356994 0.28527174 0.62480291) 28 28 1
(0.16967376 0.25529356 0.37052705 0.20450562) 24 183 1
(0.065435466 0.42305306 0.26520716 0.24630432) 15 134 1
(0.11021739 0.26358696 0.52723757 0.09895808) 4 163 2
(0.4023913 0.21695612 0.011300101 0.36935248) 31 110 1
(0.39815183 0.19157626 0.23963919 0.17063272) 26 145 2
(0.010979236 0.39994448 0.41338367 0.17569261) 9 128 2
(0.1633696 0.04690215 0.77266708 0.017061166) 4 163 2
(0.094056019 0.62645025 0.13467385 0.14481988) 23 23 1
(0.79967392 0.037228259 0.13922398 0.023873849) 18 97 1
(0.0211966 0.48203424 0.073423435 0.42334572) 27 106 2
(0.44435394 0.36184611 0.18070345 0.013096501) 27 26 1
(0.11782641 0.44679321 0.38822598 0.047154401) 34 113 1
(0.081304352 0.35911642 0.55065217 0.0089270624) 13 92 2
(0.16826087 0.14459595 0.67320652 0.013936658) 11 50 2
(0.036848642 0.60259203 0.17083185 0.18972749) 29 148 1
(0.80836958 0.11505006 0.025217385 0.051362971) 17 96 2
(0.17587639 0.19123728 0.49224571 0.14064062) 1 40 1
(0.16939406 0.046607298 0.56130434 0.22269431) 37 37 1
(0.18011422 0.078855932 0.32141028 0.41961957) 3 3 2
(0.49305772 0.08034519 0.26429857 0.16229852) 0 0 1
(0.25749992 0.18103264 0.52462105 0.036846389) 5 84 1
(0.0052447993 0.30384499 0.12086957 0.57004064) 11 11 1
(0.37444328 0.29870228 0.19119565 0.1356588) 32 32 1
(0.12670905 0.14310666 0.31600993 0.41417436) 0 119 1
(0.34217402 0.02245088 0.058582144 0.57679296) 13 172 1
(0.25217391 0.45282609 0.079176802 0.2158232) 12 51 1
(0.70809129 0.068943485 0.065084789 0.15788043) 35 34 1
(0.12270188 0.21496548 0.59499782 0.067334826) 0 0 2
(0.16630435 0.76125 0.044319963 0.028125689) 21 60 1
(0.019565737 0.55269968 0.034619151 0.39311543) 2 81 2
(0.10058686 0.12101092 0.1887283 0.58967392) 13 12 1
(0.39997983 0.18544473 0.04332539 0.37125005) 37 36 1
(0.11217402 0.70624819 0.10793661 0.073641186) 28 147 1
(0.42108696 0.1515754 0.19434851 0.23298913) 23 142 1
(0.23076087 0.39076591 0.37744611 0.001027111) 25 104 2
(0.11925012 0.19320102 0.50038043 0.18716842) 12 12 1
(0.21521739 0.092695486 0.011630457 0.68045667) 26 105 2
(0.36815195 0.083424206 0.37790211 0.17052173) 2 41 1
(0.44326218 0.12315152 0.16380426 0.26978204) 24 24 1
(0.076195642 0.078870901 0.68221606 0.16271739) 2 161 1
(0.13945624 0.027554409 0.80223658 0.030752767) 34 193 2
(0.36782604 0.55902172 0.0040749938 0.069077244) 7 86 1
(0.21521738 0.47385871 0.056742655 0.25418126) 2 41 1
(0.35999986 0.26854215 0.086684864 0.28477313) 36 115 2
(0.68185273 0.17706205 0.090435346 0.050649879) 5 5 1
(0.26071991 0.28137916 0.22815214 0.2297488) 6 6 1
(0.27620069 0.029556754 0.60861253 0.085630019) 1 80 1
(0.22037366 0.41361753 0.075410967 0.29059784) 2 2 2
(0.19370049 0.35635628 0.21526932 0.23467391) 10 10 2
(0.4123913 0.11671616 0.11364145 0.35725109) 31 110 2
(0.29608648 0.60209824 0.093662869 0.0081524124) 26 145 1
(0.52445652 0.01211948 0.45484172 0.0085822771) 24 183 2
(0.38467391 0.032529824 0.44440217 0.13839409) 12 91 2
(0.42159896 0.095613494 0.23206526 0.25072228) 7 6 2
(0.015000172 0.62436199 0.23461953 0.12601831) 34 113 2
(0.62417095 0.19329496 0.16003409 0.0225) 18 18 2
(0.3966449 0.23401491 0.15102578 0.21831441) 29 29 2
(0.02858703 0.50586186 0.3476165 0.11793461) 13 172 1
(0.31619565 0.33501192 0.34000009 0.0087923396) 26 105 2
(0.13358695 0.25129087 0.39695698 0.2181652) 31 110 2
(0.26858696 0.092717111 0.37773622 0.26095971) 26 105 1
(0.099674962 0.31292936 0.44799437 0.13940131) 29 148 1
(0.5575 0.10073093 0.28954081 0.052228261) 10 129 1
(0.19242845 0.40351421 0.34541686 0.058640486) 1 1 2
(0.051630435 0.59494565 0.15871413 0.19470979) 19 58 1
(0.38372987 0.0069394126 0.13351577 0.47581495) 25 24 1
(0.4923912 0.1356119 0.087268228 0.28472867) 33 152 1
(0.69304348 0.21946924 0.068411192 0.019076087) 39 198 1
(0.40702129 0.10045675 0.22630435 0.26621762) 19 18 2
(0.44228261 0.084628117 0.28308927 0.19) 19 178 1
(0.072173837 0.37314734 0.25385875 0.30082006) 13 52 2
(0.26922001 0.096096515 0.51995521 0.11472826) 11 11 2
(0.28226226 0.40734713 0.096304348 0.21408626) 20 20 1
(0.40554366 0.40706513 0.051752442 0.13563877) 24 63 1
(0.26902174 0.29841769 0.23315217 0.1994084) 22 101 2
(0.3575 0.16130435 0.35130878 0.12988687) 3 162 2
(0.15665992 0.64645264 0.066793523 0.13009392) 18 17 2
(0.59076077 0.16456552 0.14721847 0.097455237) 13 172 2
(0.58673913 0.11888163 0.14315217 0.15122707) 18 57 2
(0.27543401 0.11176543 0.091739972 0.52106058) 14 53 2
(0.16206521 0.044827599 0.17055287 0.62255433) 17 136 1
(0.34374867 0.39247343 0.12407614 0.13970175) 24 23 2
(0.43337114 0.0095957474 0.22072938 0.33630373) 5 164 1
(0.21771908 0.1297227 0.038265655 0.61429257) 1 0 2
(0.1840215 0.20565209 0.3828126 0.22751382) 16 55 1
(0.68010876 0.12581509 0.11329304 0.080783101) 36 155 2
(0.37543478 0.092065217 0.23203844 0.30046156) 39 198 2
(0.19902174 0.22657609 0.27845012 0.29595206) 4 83 1
(0.20869565 0.050706522 0.1589582 0.58163963) 22 61 1
(0.58065234 0.17059787 0.040189564 0.20856022) 2 81 1
(0.03423913 0.42363743 0.40744565 0.13467779) 10 49 2
(0.78934783 0.016521739 0.078311957 0.11581848) 19 98 1
(0.026847826 0.68272674 0.011784131 0.2786413) 11 170 1
(0.20468983 0.031676823 0.4859703 0.27766304) 16 16 2
(0.038695652 0.3651309 0.38535823 0.21081522) 3 122 1
(0.27293457 0.18976821 0.3263045 0.21099273) 33 112 2
(0.00032608696 0.28212716 0.10037284 0.61717391) 20 139 1
(0.21868085 0.0092465319 0.58033365 0.19173897) 25 24 1
(0.57510893 0.11511268 0.043256845 0.26652155) 12 131 1
(0.41074643 0.27940926 0.011257221 0.29858709) 24 24 2
(0.46304674 0.06874837 0.4080962 0.060108696) 22 21 1
(0.006739179 0.16527891 0.54527173 0.28271019) 34 113 2
(0.2142391 0.13598773 0.37830577 0.2714674) 2 161 1
(0.14858722 0.39988607 0.28538519 0.16614152) 36 155 1
(0.42489126 0.25720461 0.07317586 0.24472827) 2 161 1
(0.31315251 0.19810946 0.13554379 0.35319424) 6 45 2
(0.3014096 0.11184921 0.50385928 0.08288192) 14 14 1
(0.13468453 0.43162548 0.2366303 0.19705969) 13 12 2
(0.18119565 0.59326087 0.14779704 0.077746441) 20 99 1
(0.052065217 0.40657978 0.16374631 0.3776087) 3 122 1
(0.19978261 0.14267768 0.63722826 0.020311451) 32 71 2
(0.37843978 0.3826823 0.067573569 0.17130436) 13 12 1
(0.54171238 0.077024245 0.13985033 0.24141304) 19 19 2
(0.19913043 0.32283183 0.11211382 0.36592391) 22 181 1
(0.41010846 0.52000009 0.051010485 0.018880964) 6 85 1
(0.26551754 0.20331478 0.1604213 0.37074638) 0 119 2
(0.13850016 0.12080427 0.49335862 0.24733696) 32 31 1
(0.29 0.25777174 0.068236561 0.3839917) 19 58 1
(0.30929046 0.20905042 0.11660477 0.36505435) 16 16 2
(0.18869559 0.095823591 0.07701096 0.63846986) 16 55 2
(0.6576087 0.098532609 0.057606939 0.18625176) 38 157 2
(0.51630425 0.20434786 0.11776931 0.16157858) 6 85 1
(0.2657243 0.58773568 0.11621394 0.030326087) 20 20 2
(0.0067391304 0.68778847 0.068369565 0.23710283) 35 114 2
(0.20348242 0.29010662 0.48923705 0.017173913) 22 22 2
(0.40565195 0.31737694 0.14648187 0.13048924) 26 145 1
(0.70667624 0.23139085 0.052770399 0.0091625154) 14 13 2
(0.29141306 0.062081362 0.48532607 0.16117951) 13 92 2
(0.063913043 0.71884928 0.16077029 0.056467391) 6 125 1
(0.44467415 0.13943598 0.11652193 0.29936794) 6 45 2
(0.38532584 0.27864163 0.10006491 0.23596763) 12 171 2
(0.30923913 0.23565217 0.43810564 0.017003053) 3 122 2
(0.063695605 0.24570651 0.047711296 0.64288658) 37 116 1
(0.2309818 0.11021562 0.37260694 0.28619565) 38 37 1
(0.10119565 0.29130435 0.36924724 0.23825276) 16 95 1
(0.011740456 0.2469015 0.33892103 0.40243702) 31 70 1
(0.14684476 0.46559926 0.23005401 0.15750197) 5 4 2
(0.44793478 0.13146733 0.32424998 0.096347909) 26 185 2
(0.27782609 0.16228261 0.42714304 0.13274827) 12 91 1
(0.075104386 0.22299111 0.44858915 0.25331535) 37 36 1
(0.25020032 0.0096824486 0.39881288 0.34130435) 21 21 2
(0.34380435 0.021521739 0.2972778 0.33739611) 32 71 1
(0.4516171 0.23250655 0.18093094 0.1349454) 7 7 2
(0.14580736 0.17497676 0.46573763 0.21347826) 35 34 1
(0.36402266 0.029248613 0.28825121 0.31847752) 12 131 1
(0.32785799 0.46221231 0.16226666 0.047663043) 19 19 2
(0.066936061 0.18446675 0.034076087 0.7145211) 38 38 1
(0.054239966 0.099782642 0.30269896 0.54327843) 15 174 2
(0.31487806 0.15690907 0.29880393 0.22940895) 34 34 1
(0.044352485 0.61021506 0.18668246 0.15875) 37 37 2
(0.29511098 0.23831455 0.23626881 0.23030566) 8 167 2
(0.70695667 0.11722889 0.022987781 0.15282665) 14 13 2
(0.22336996 0.57568883 0.12054418 0.080397031) 5 44 2
(0.16217397 0.076521594 0.42579579 0.33550865) 37 156 2
(0.22749971 0.61000017 0.053758578 0.10874154) 34 153 2
(0.29163058 0.20048904 0.13456008 0.37332031) 7 46 1
(0.066630435 0.15590159 0.58027174 0.19719623) 20 59 2
(0.41467189 0.17948684 0.10179848 0.30404279) 30 109 2
(0.42688527 0.26172076 0.23842247 0.072971505) 8 7 2
(0.44065209 0.22597306 0.22679357 0.10658128) 7 86 2
(0.51630435 0.36496465 0.018532609 0.10019839) 16 95 2
(0.21836957 0.0075035146 0.75390912 0.020217796) 25 184 1
(0.29891344 0.43711937 0.16049823 0.10346897) 26 65 1
(0.096963482 0.028692172 0.029779129 0.84456522) 18 17 1
(0.17641302 0.02152171 0.79440322 0.0076620437) 9 168 2
(0.013152174 0.16815201 0.53131344 0.28738237) 26 185 2
(0.18836974 0.015760242 0.72138996 0.074480061) 14 133 2
(0.042826087 0.14853261 0.39196296 0.41667835) 20 99 1
(0.13003961 0.11900185 0.19720846 0.55375008) 33 32 1
(0.79130441 0.15967388 0.014249255 0.034772457) 32 191 2
(0.40184783 0.1893581 0.3088587 0.099935378) 32 71 2
(0.18467131 0.37105903 0.40475749 0.039512159) 27 186 1
(0.22828521 0.12678113 0.37869594 0.26623773) 15 15 1
(0.072934915 0.18979867 0.55353269 0.18373372) 36 75 2
(0.25067573 0.55781406 0.090586367 0.10092384) 7 7 2
(0.10573311 0.15477024 0.7243173 0.015179348) 0 39 1
(0.082608696 0.064259942 0.10209875 0.75103261) 35 154 1
(0.3729451 0.16336441 0.28021739 0.1834731) 39 38 2
(0.12701097 0.27475539 0.27548913 0.32274452) 32 32 1
(0.23579818 0.0090574299 0.4161413 0.33900308) 39 199 1
(0.09088075 0.21597267 0.59923354 0.093913043) 35 35 2
(0.25847816 0.055380145 0.41321687 0.27292483) 29 68 1
(0.75054337 0.062769986 0.051468787 0.13521785) 33 152 1
(0.23173932 0.3313399 0.32538019 0.11154059) 26 65 2
(0.44486087 0.028113042 0.11876522 0.40826087) 23 23 2
(0.08652109 0.3423373 0.099898638 0.47124297) 14 93 1
(0.4346739 0.23739085 0.016196597 0.31173865) 31 110 1
(0.30664859 0.0151093 0.64150995 0.036732164) 14 93 2
(0.1822492 0.3837667 0.027190616 0.40679348) 3 2 1
(0.27521741 0.11335747 0.47293477 0.13849035) 17 96 2
(0.074256894 0.086403362 0.69130466 0.14803508) 29 29 1
(0.46119309 0.20927147 0.12306678 0.20646866) 27 186 1
(0.34239072 0.35962017 0.045598655 0.25239046) 15 15 2
(0.19663031 0.48171043 0.22616954 0.095489721) 33 152 1
(0.034595521 0.029930786 0.7795088 0.1559649) 8 7 2
(0.67629889 0.012715414 0.25119908 0.05978662) 30 29 2
(0.11434775 0.29380445 0.17722833 0.41461948) 2 41 1
(0.10826087 0.54024779 0.10586957 0.24562178) 12 91 2
(0.34021744 0.037649797 0.35124997 0.27088278) 23 62 2
(0.16649021 0.57289663 0.080597372 0.18001579) 29 28 2
(0.0069565217 0.78108696 0.17588028 0.036076243) 38 197 2
(0.2075 0.44076843 0.04951087 0.3022207) 12 51 2
(0.053476614 0.020707344 0.57755434 0.3482617) 6 6 1
(0.27663034 0.16320653 0.21198812 0.34817501) 37 116 1
(0.70880435 0.02023729 0.22264314 0.048315217) 18 137 1
(0.28025174 0.3528608 0.16679483 0.20009263) 30 29 2
(0.6363986 0.11272461 0.24408331 0.0067934783) 16 16 2
(0.54489069 0.0165217 0.23784359 0.20074403) 29 68 1
(0.14847826 0.81888599 0.0031248828 0.02951087) 20 139 1
(0.51269887 0.17381361 0.081358871 0.23212865) 28 27 2
(0.066739868 0.39744524 0.45334611 0.08246878) 32 191 2
(0.37402111 0.18679379 0.090444902 0.3487402) 26 145 2
(0.47978261 0.48400666 0.0079347826 0.028275953) 32 71 2
(0.27902174 0.3411413 0.029781616 0.35005534) 39 198 2
(0.20629064 0.18919164 0.11419163 0.49032608) 17 16 1
(0.19306455 0.18303293 0.081576063 0.54232646) 6 6 1
(0.25054397 0.12494541 0.2088041 0.41570652) 32 31 1
(0.15075972 0.24782647 0.28304263 0.31837118) 31 150 2
(0.088215211 0.28317419 0.1226317 0.5059789) 6 5 1
(0.22326087 0.13017793 0.26206522 0.38449598) 4 83 2
(0.4780435 0.0046195481 0.30104296 0.21629399) 38 77 1
(0.1025 0.01826033 0.7215483 0.15769137) 26 105 1
(0.077826308 0.31382038 0.51373354 0.094619773) 37 156 1
(0.19880435 0.24261623 0.025263802 0.53331562) 25 184 1
(0.20836955 0.60728258 0.12073721 0.063610658) 5 124 2
(0.37304375 0.27899995 0.14659747 0.20135883) 9 128 1
(0.094347826 0.45478261 0.30648885 0.14438071) 21 180 2
(0.032452885 0.26964312 0.53858696 0.15931704) 11 11 1
(0.10978261 0.49348739 0.11830609 0.27842391) 22 141 1
(0.097173934 0.14485245 0.25461967 0.50335395) 8 47 2
(0.24999981 0.20418458 0.50507615 0.040739457) 8 47 1
(0.2921906 0.4577629 0.16837004 0.081676458) 1 1 1
(0.41065217 0.34087805 0.002600211 0.24586957) 11 130 1
(0.012719002 0.61021548 0.081081736 0.29598378) 9 128 2
(0.24902175 0.2223214 0.12108692 0.40756993) 17 56 2
(0.19206469 0.5130979 0.058149156 0.23668825) 34 193 2
(0.38183966 0.00071059969 0.012336873 0.60511287) 37 36 2
(0.092186526 0.46350842 0.19158505 0.25272001) 1 120 1
(0.0060100078 0.79590804 0.109495 0.088586957) 22 21 1
(0.39201751 0.29230646 0.091219504 0.22445652) 35 35 2
(0.57619565 0.10744565 0.11582557 0.20053312) 21 100 1
(0.25510871 0.57007211 0.10369563 0.071123544) 13 92 2
(0.61858581 0.060054589 0.20702562 0.11433398) 34 193 2
(0.38913043 0.42461957 0.035627449 0.15062255) 3 162 2
(0.06326087 0.17 0.44125354 0.32548559) 39 118 1
(0.068152174 0.16434783 0.20771098 0.55978902) 22 141 2
(0.52728265 0.1250626 0.18668457 0.16097019) 26 65 2
(0.60565217 0.16547173 0.14784349 0.081032609) 10 169 1
(0.25265397 0.27209693 0.42617302 0.049076087) 20 20 2
(0.50139735 0.32451868 0.15321449 0.020869483) 7 6 1
(0.16338143 0.057928847 0.53581521 0.24287452) 6 6 1
(0.1390208 0.35783705 0.14346777 0.35967439) 25 144 1
(0.40717352 0.014178076 0.20244675 0.37620165) 29 68 2
(0.14584929 0.1975089 0.31088013 0.34576168) 30 30 2
(0.12162974 0.11711991 0.55405745 0.20719289) 27 186 2
(0.072943769 0.052495507 0.86037594 0.014184783) 4 3 1
(0.15434783 0.30282609 0.48188756 0.060938523) 11 90 1
(0.3918995 0.32350677 0.078126336 0.20646739) 17 16 1
(0.010434823 0.58809781 0.24297577 0.1584916) 27 106 1
(0.061521735 0.1060326 0.62087432 0.21157134) 5 124 2
(0.45521637 0.32733718 0.14516023 0.072286223) 34 193 2
(0.089737163 0.52475093 0.060380489 0.32513142) 24 23 2
(0.06391279 0.35679381 0.10332716 0.47596624) 12 171 2
(0.62042831 0.020764811 0.0078594779 0.3509474) 1 120 2
(0.30684782 0.26234178 0.19662564 0.23418476) 17 136 1
(0.14891664 0.10016027 0.61928672 0.13163637) 30 69 1
(0.12065214 0.4354348 0.19759072 0.24632234) 5 84 1
(0.23217367 0.054415203 0.36864168 0.34476945) 8 47 2
(0.036190415 0.24967658 0.16880772 0.54532528) 1 1 2
(0.343313 0.067419546 0.3316587 0.25760876) 36 35 1
(0.3656536 0.41198747 0.12540265 0.096956272) 14 133 1
(0.58989127 0.14588306 0.060692957 0.20353272) 5 124 1
(0.40282509 0.12358745 0.36376758 0.10981988) 25 144 2
(0.52598267 0.0060847863 0.42483652 0.04309603) 2 1 2
(0.34423914 0.17452154 0.17505435 0.30618497) 31 70 2
(0.17839365 0.12966119 0.25174005 0.44020511) 8 8 1
(0.056676436 0.031933494 0.60177072 0.30961935) 32 32 2
(0.41967391 0.30692688 0.16655138 0.10684783) 6 125 1
(0.3473913 0.37545469 0.269654 0.0075) 19 178 1
(0.11152161 0.27725805 0.053774531 0.55744581) 31 150 1
(0.27630435 0.33099313 0.15634383 0.2363587) 35 154 1
(0.19087148 0.37141311 0.029672669 0.40804273) 6 165 1
(0.25065216 0.25017271 0.37613168 0.12304345) 17 136 1
(0.23989124 0.26116806 0.25380437 0.24513633) 15 94 2
(0.017126763 0.25855615 0.42350183 0.30081526) 9 9 2
(0.11689195 0.16889098 0.54092391 0.17329315) 32 31 2
(0.60108696 0.039728261 0.098703463 0.26048132) 12 131 2
(0.080000429 0.43217258 0.017506404 0.47032059) 8 127 2
(0.35184799 0.36093049 0.0071127725 0.28010875) 16 135 1
(0.33282609 0.24168478 0.20131587 0.22417326) 38 157 2
(0.094993745 0.61103574 0.19027487 0.10369565) 22 22 2
(0.039795268 0.045592183 0.47744047 0.43717208) 8 8 2
(0.32794115 0.043089059 0.61422967 0.014740123) 1 40 1
(0.2568875 0.47079537 0.14788044 0.12443668) 10 9 2
(0.12597823 0.35641306 0.29275084 0.22485787) 10 129 2
(0.29716916 0.14318837 0.43317195 0.12647052) 30 149 1
(0.47742248 0.0097670789 0.3617778 0.15103264) 2 2 2
(0.185979 0.18815226 0.0018748651 0.62399387) 15 174 2
(0.53206588 0.033749473 0.060360468 0.37382418) 29 148 2
(0.13263527 0.54553051 0.11487847 0.20695576) 14 14 2
(0.0025000323 0.044157928 0.79190216 0.16143988) 23 62 2
(0.069891304 0.28451087 0.59008032 0.055517508) 23 102 1
(0.80478261 0.082700819 0.07940224 0.033114333) 31 110 2
(0.1281526 0.36744512 0.20293163 0.30147066) 15 134 2
(0.14054436 0.11891132 0.69469201 0.045852311) 8 127 2
(0.21576209 0.61608621 0.023196098 0.1449556) 5 164 2
(0.27869577 0.23804332 0.44140182 0.041859088) 16 135 2
(0.46489187 0.10108719 0.41220083 0.021820112) 34 73 1
(0.19891322 0.24619527 0.28503676 0.26985475) 37 156 2
(0.25326087 0.037606196 0.64032609 0.068806847) 35 74 2
(0.34047446 0.14324103 0.36478274 0.15150176) 28 27 2
(0.058363686 0.26723109 0.46462242 0.20978281) 29 28 1
(0.015434767 0.82228261 0.013293605 0.14898901) 5 84 1
(0.68815217 0.10298913 0.051918313 0.15694038) 19 98 1
(0.56086945 0.0090906552 0.31677915 0.11326074) 28 187 1
(0.27006189 0.067740793 0.10388199 0.55831532) 26 26 2
(0.5626138 0.35901915 0.0085301914 0.069836865) 7 6 1
(0.16813082 0.11435872 0.18717296 0.5303375) 8 7 2
(0.79847826 0.075706522 0.12376159 0.0020536304) 20 99 1
(0.15611114 0.57422705 0.079335709 0.1903261) 2 2 2
(0.34369565 0.10472826 0.40528911 0.14628698) 19 138 2
(0.2853357 0.38738445 0.25760449 0.069675357) 30 30 2
(0.0083697094 0.3273422 0.08803804 0.57625005) 16 135 1
(0.073369565 0.31923913 0.043576548 0.56381476) 35 74 1
(0.2148913 0.14717391 0.24897469 0.38896009) 12 91 1
(0.34750053 0.015488864 0.42939885 0.20761176) 2 121 2
(0.61003093 0.072484474 0.098913002 0.21857159) 7 7 1
(0.45663043 0.15951087 0.15855721 0.22530148) 4 83 1
(0.21184528 0.17014444 0.10793673 0.51007355) 1 80 2
(0.014239149 0.23548129 0.18413826 0.5661413) 31 190 1
(0.13606197 0.33430597 0.26586957 0.26376249) 31 31 1
(0.034713334 0.26748029 0.3195455 0.37826088) 34 34 2
(0.11412981 0.60559829 0.16558894 0.11468297) 8 87 1
(0.023370435 0.070141455 0.60317363 0.30331448) 29 148 1
(0.037583272 0.43767576 0.44164315 0.083097826) 31 31 2
(0.23465702 0.11479106 0.50185627 0.14869565) 39 38 1
(0.275 0.26720234 0.40336957 0.054428099) 4 83 2
(0.10403207 0.47545769 0.19995785 0.22055239) 1 40 2
(0.45097953 0.38856203 0.11132894 0.049129494) 13 132 1
(0.18152174 0.20304348 0.40346907 0.21196571) 39 118 1
(0.019392194 0.80530375 0.076087362 0.099216697) 34 33 2
(0.4623913 0.2563587 0.12721046 0.15403954) 23 62 1
(0.11532611 0.457663 0.19423604 0.23277485) 36 155 2
(0.23913314 0.51168164 0.22439478 0.024790442) 30 189 2
(0.020326851 0.0044561605 0.52163119 0.4535858) 2 161 2
(0.39938492 0.093678179 0.31804241 0.18889449) 27 27 1
(0.0041435643 0.12238474 0.031949957 0.84152174) 37 37 2
(0.045978297 0.42360016 0.4804892 0.04993235) 4 43 2
(0.016956061 0.007771011 0.62794073 0.34733219) 30 109 1