/*--------------------------------*- C++ -*----------------------------------*\
  =========                 |
  \\      /  F ield         | OpenFOAM: The Open Source CFD Toolbox
   \\    /   O peration     | Website:  https://openfoam.org
    \\  /    A nd           | Version:  7
     \\/     M anipulation  |
\*---------------------------------------------------------------------------*/
FoamFile
{
    version     2.0;
    format      ascii;
    class       vectorField;
    location    "0.01/lagrangian/kinematicCloud";
    object      U;
}
// * * * * * * * * * * * * * * * * * * * * * * * * * * * * * * * * * * * * * //


2873
(
(4.7827312e-08 3.2838288e-06 -0.095111447)
(1.6612958e-06 2.1097014e-07 -0.093703593)
(1.7209546e-07 -1.2318156e-06 -0.0898308)
(1.9201271e-06 6.1907562e-07 -0.093940102)
(6.4693703e-07 7.2098234e-08 -0.093676926)
(3.9066518e-25 2.3174664e-23 -0.094313711)
(6.3252412e-08 1.3732614e-08 -0.091490402)
(-1.6659315e-06 1.3683783e-06 -0.093963612)
(5.3368511e-28 -1.4939012e-30 -0.094115022)
(-4.2043441e-05 -6.2401528e-05 -0.08990916)
(-7.2068365e-32 2.5069567e-31 -0.094250166)
(5.0042241e-06 8.6834845e-06 -0.092984588)
(-1.8770066e-08 -8.2822224e-09 -0.093763109)
(2.7307751e-06 9.1918258e-07 -0.093533086)
(9.3931653e-08 3.1877474e-08 -0.093546965)
(0.00013153247 4.5645275e-05 -0.095080788)
(5.682102e-06 -2.2356855e-06 -0.092889057)
(1.1851543e-07 2.5731694e-08 -0.09372224)
(-2.1652891e-06 -1.7677013e-08 -0.093957149)
(4.1633864e-25 2.4092448e-26 -0.094106241)
(0.00040753785 -0.00024723585 -0.095068999)
(2.5207453e-05 -6.1626445e-08 -0.094073473)
(3.0573421e-07 1.6142699e-07 -0.090739124)
(0.0094085737 -0.0107528 -0.085174077)
(1.5868156e-24 3.8949031e-24 -0.092630785)
(-1.1090095e-06 -9.044818e-09 -0.092382432)
(2.3200969e-09 2.9987688e-09 -0.094606237)
(1.5909767e-06 5.0664949e-07 -0.09401339)
(1.7642777e-06 2.2144944e-06 -0.094365584)
(3.864328e-25 -3.8643253e-25 -0.094017534)
(-5.3193845e-12 -3.3644734e-12 -0.0943572)
(-6.5386735e-14 -4.1755225e-12 -0.094417405)
(1.1509032e-07 3.5812396e-07 -0.092644616)
(-2.4834837e-06 -2.0260488e-08 -0.092251372)
(3.9591139e-05 -2.7181492e-05 -0.094345676)
(-2.1260455e-08 7.991626e-08 -0.094961054)
(4.2640481e-07 -7.7843618e-07 -0.093723601)
(1.477147e-06 -1.1246045e-06 -0.094012076)
(-0.00027856958 7.1350027e-05 -0.092732461)
(-5.5783795e-33 2.9650957e-33 -0.093714108)
(2.7065551e-06 1.8775301e-06 -0.094394313)
(0.00033548353 -4.4579462e-05 -0.095347711)
(-1.2568844e-08 2.8202916e-09 -0.094620393)
(-1.6225217e-07 -8.1965908e-08 -0.093631786)
(0.0099228001 0.007120766 -0.096821621)
(0.0039691318 0.0034602878 -0.096685649)
(4.1344531e-07 8.9765936e-08 -0.093757138)
(-6.758093e-08 1.7967914e-07 -0.094441076)
(3.0628544e-06 -1.1094804e-06 -0.095038065)
(-2.1944508e-07 -1.8110144e-09 -0.092288119)
(-1.4224716e-06 7.768405e-07 -0.090800259)
(3.4704816e-08 2.2960992e-06 -0.095231996)
(-1.1317451e-06 -9.5165539e-07 -0.094486708)
(-5.0870773e-08 1.1414766e-08 -0.094823035)
(8.1363603e-07 -9.8073591e-07 -0.095723319)
(2.3041344e-06 -2.3397006e-06 -0.095748357)
(-3.2152965e-06 -2.62341e-08 -0.090835535)
(1.0800809e-06 -6.2936357e-07 -0.092795738)
(-4.0768154e-27 4.0771842e-27 -0.093815449)
(1.2837311e-09 1.8674175e-09 -0.094508399)
(9.7232641e-06 4.0259911e-07 -0.092902365)
(-3.1939769e-08 7.166885e-09 -0.094573134)
(8.8806255e-07 9.8970594e-08 -0.093680039)
(4.9095359e-27 4.9099683e-27 -0.093866657)
(3.2200733e-06 3.3238929e-06 -0.092884212)
(5.7503333e-06 2.6580083e-06 -0.09491124)
(2.2447851e-08 1.5621704e-06 -0.095320673)
(-1.4166839e-08 5.3277572e-08 -0.094945083)
(-1.6458599e-07 -1.5503721e-06 -0.089871966)
(1.2779531e-06 -3.1315666e-06 -0.095737641)
(-4.5168993e-30 1.7280121e-30 -0.0941072)
(3.6806007e-07 1.1701972e-06 -0.089378276)
(5.2240508e-06 -7.9113312e-07 -0.093797835)
(-3.9162089e-17 1.4708021e-16 -0.094925713)
(9.7414481e-12 -3.6585744e-11 -0.09492598)
(1.5354484e-08 1.077868e-06 -0.095128226)
(-9.5539523e-08 -1.7063468e-06 -0.089887058)
(1.2768768e-06 1.423241e-07 -0.094590429)
(0.0011205946 0.00028792468 -0.096906799)
(3.0455944e-06 6.6124979e-07 -0.095167855)
(-5.0598145e-12 -3.2002972e-12 -0.09345984)
(-7.5816231e-08 2.8485769e-07 -0.094203575)
(0.0015445988 0.00031184918 -0.097228565)
(8.2444721e-05 -3.0315404e-05 -0.094540331)
(1.2956907e-31 1.3012863e-31 -0.094128601)
(1.36702e-32 1.6532675e-32 -0.093992369)
(1.3126397e-06 2.8499618e-07 -0.093674819)
(2.349492e-23 5.2810218e-23 -0.094470282)
(-9.0669683e-12 -5.7347939e-12 -0.093442552)
(9.6245638e-06 -2.4830827e-05 -0.093439983)
(-0.00025044433 9.837104e-05 -0.094349452)
(2.5335585e-06 5.5007819e-07 -0.094756135)
(-2.3388773e-06 -3.7720809e-06 -0.094676982)
(1.6760343e-22 -2.68868e-22 -0.094595114)
(-3.5194755e-11 -2.9696439e-11 -0.092863534)
(2.7252128e-06 3.6198545e-06 -0.093490657)
(7.5378708e-09 5.2916626e-07 -0.094414664)
(1.6054723e-06 -9.3491996e-07 -0.093605721)
(5.7299787e-13 -1.2857356e-13 -0.095129162)
(6.8466379e-06 -1.8625898e-06 -0.092882116)
(-7.6801621e-08 -1.2386367e-07 -0.095163237)
(-2.4692093e-25 -2.0411502e-17 -0.094462872)
(2.198846e-06 2.4505154e-07 -0.093724584)
(3.7243693e-07 8.0672359e-07 -0.094122438)
(-9.58994e-11 6.9610267e-07 -0.092803449)
(6.3270785e-08 4.2821456e-06 -0.094453681)
(-7.0064712e-23 1.8238048e-22 -0.094592133)
(1.2443267e-05 2.2359412e-05 -0.091703157)
(6.994737e-26 4.6072273e-24 -0.093510681)
(9.1382977e-25 -2.0040495e-24 -0.094855353)
(-1.4515764e-10 8.149749e-11 -0.092536947)
(9.2059935e-26 1.9525805e-25 -0.094167231)
(-8.4514421e-31 3.278075e-31 -0.093995929)
(-1.4092126e-24 -4.9833458e-25 -0.094360695)
(1.7789419e-07 3.8620086e-08 -0.091200482)
(6.9674551e-07 -1.6312501e-06 -0.089856443)
(4.0658945e-23 1.3855431e-22 -0.094631833)
(-2.4958293e-23 -8.2059606e-23 -0.094790877)
(3.1367955e-08 2.0650442e-06 -0.09513693)
(5.6330994e-23 5.0381779e-24 -0.094591347)
(4.5570127e-06 5.6982359e-06 -0.093531899)
(3.1335496e-08 2.6066022e-06 -0.094354737)
(-7.7464704e-06 4.2314846e-06 -0.092180693)
(-3.6429939e-23 1.2024715e-23 -0.09460221)
(-1.073866e-30 2.2883349e-31 -0.094035617)
(1.1771177e-06 1.311878e-07 -0.094345148)
(3.4274173e-23 7.1825372e-23 -0.094736302)
(5.860599e-06 5.0694331e-06 -0.093532025)
(-1.5927338e-25 -1.2765291e-25 -0.094752148)
(2.9331591e-07 4.436083e-07 -0.092953384)
(1.0700795e-06 -6.2367569e-07 -0.094505591)
(-2.038692e-10 -1.6594393e-10 -0.092863849)
(3.2546423e-06 7.0663763e-07 -0.093732536)
(1.3485161e-06 -2.8444256e-07 -0.089844417)
(1.9966838e-14 1.2750595e-12 -0.094393688)
(4.7228596e-06 -2.1183296e-06 -0.092933919)
(-4.7971161e-09 1.8022989e-08 -0.094848471)
(-1.7999337e-06 6.7319058e-08 -0.090716971)
(-1.1995593e-08 -7.5451604e-09 -0.093660629)
(-7.2076001e-25 2.7063549e-26 -0.094091157)
(2.737175e-10 -2.5639536e-11 -0.091464218)
(1.8174076e-25 2.04733e-16 -0.094342611)
(-1.2699546e-24 2.1160571e-24 -0.09505041)
(3.1412064e-11 9.8280644e-12 -0.092768825)
(-9.5165343e-26 5.0794222e-26 -0.094138456)
(-3.2360179e-32 -2.4871052e-32 -0.093773407)
(5.1077115e-25 2.6354639e-24 -0.093470965)
(-3.9887825e-09 -7.8394966e-09 -0.095196361)
(7.7898879e-07 1.6913158e-07 -0.092044229)
(1.7231403e-06 2.2819155e-06 -0.093516344)
(4.8381992e-09 1.4103525e-06 -0.094424125)
(-5.649414e-06 3.1392461e-06 -0.091929382)
(9.9085653e-08 2.1513163e-08 -0.093661668)
(-2.0054814e-08 4.5000495e-09 -0.095243447)
(4.9892611e-08 3.4314304e-06 -0.094657952)
(-1.2860856e-07 4.824985e-07 -0.093449214)
(-2.1390367e-28 2.1442995e-28 -0.09358918)
(-8.9695568e-08 2.0126564e-08 -0.095201761)
(2.8775739e-07 3.2069273e-08 -0.093671896)
(-7.5840068e-25 8.2999308e-26 -0.095029545)
(-3.9903221e-06 -3.2732384e-08 -0.094522864)
(-7.152162e-06 3.9067518e-06 -0.092175064)
(3.9228202e-06 3.3356634e-06 -0.094414063)
(1.808208e-06 -1.5120043e-06 -0.094021273)
(2.1058485e-06 1.1725787e-06 -0.094334245)
(-4.2247384e-08 -2.0550346e-08 -0.093742048)
(4.6121991e-07 6.8062821e-07 -0.093493573)
(7.323807e-25 -7.3238066e-25 -0.093751976)
(4.8027494e-06 5.2166817e-06 -0.09488236)
(1.0226236e-05 -6.5838681e-07 -0.093526863)
(1.2760041e-05 6.8029968e-06 -0.092815759)
(-9.69847e-08 3.6394574e-07 -0.093488778)
(1.0160558e-06 2.2057888e-07 -0.091447296)
(-3.3070532e-06 -5.3335302e-06 -0.094775201)
(2.1297379e-06 2.3734975e-07 -0.093694506)
(-8.4975558e-32 8.3933795e-32 -0.094075956)
(1.7141812e-25 7.2281164e-25 -0.09341739)
(-8.4421969e-06 5.0543406e-06 -0.092543883)
(-4.5189797e-07 -7.2880941e-07 -0.094607346)
(5.6765245e-11 -3.8064315e-11 -0.091848448)
(-2.157356e-08 4.8408371e-09 -0.094703604)
(1.3135019e-31 1.321963e-31 -0.094118126)
(-9.8699239e-07 3.2473261e-07 -0.094358852)
(5.6210731e-32 8.666026e-32 -0.094081042)
(8.0433355e-07 1.2135899e-06 -0.093496538)
(-1.0283191e-06 -7.295016e-07 -0.094387231)
(9.4045329e-10 7.1185592e-09 -0.095260759)
(3.4066206e-07 2.7891071e-07 -0.093552075)
(-1.7432782e-06 -0.00012247024 -0.094936063)
(1.8903458e-06 -2.2222431e-06 -0.093986649)
(1.5449585e-22 1.0203045e-23 -0.094542117)
(4.5759978e-08 1.2408614e-06 -0.095096464)
(-1.7250623e-11 3.4120808e-07 -0.090903109)
(3.754133e-06 -2.4346774e-06 -0.093591479)
(1.0011538e-07 2.1736734e-08 -0.094705922)
(1.9671954e-08 1.3810164e-06 -0.094927897)
(-5.2099707e-09 1.1690523e-09 -0.094774509)
(-1.7245747e-06 -1.4050579e-08 -0.092337041)
(-4.8616488e-06 -3.971603e-08 -0.091085925)
(-2.6647197e-06 1.6165708e-06 -0.091804088)
(-1.1096973e-08 -2.4162871e-08 -0.09529593)
(2.0331722e-24 3.1158149e-24 -0.094786499)
(-7.669972e-07 -9.9521802e-07 -0.08982126)
(-2.3848143e-08 5.3512251e-09 -0.095241865)
(0.00013349938 -2.7766438e-05 -0.094894086)
(1.0026137e-06 1.5143273e-06 -0.09349606)
(-2.5936242e-12 -1.6404492e-12 -0.093442557)
(0.00076452031 0.0002703235 -0.096637286)
(1.9516614e-07 4.2373854e-08 -0.093596213)
(-1.8131808e-23 3.0572257e-23 -0.094665544)
(7.5512666e-11 8.4156562e-12 -0.094327529)
(0.00057891749 0.00060327698 -0.096217448)
(6.3226783e-07 -2.8588478e-06 -0.09567483)
(-7.6036479e-23 -7.1337559e-23 -0.094533138)
(2.5406479e-10 -1.4112758e-10 -0.092556545)
(-8.7840615e-05 0.00071385287 -0.094901846)
(4.0239026e-33 1.0009585e-32 -0.094007461)
(5.5268939e-07 2.4146814e-07 -0.093877894)
(-2.445071e-08 -3.9433476e-08 -0.094880745)
(4.1764004e-06 5.1699371e-06 -0.093499564)
(-2.2724101e-07 -1.7935957e-07 -0.094296234)
(4.5583233e-25 1.5280233e-15 -0.094411648)
(3.5464667e-08 2.9345639e-06 -0.094383237)
(3.9347126e-11 6.3457915e-11 -0.094548492)
(6.5466648e-09 4.062632e-07 -0.090744438)
(6.7072245e-07 1.6949261e-07 -0.09377728)
(2.8107455e-08 1.884145e-06 -0.095253813)
(-2.1392396e-08 -1.2031803e-08 -0.093745879)
(-2.1281102e-06 1.1729995e-06 -0.091979006)
(3.9712522e-07 9.8955826e-07 -0.092939734)
(4.1567554e-07 1.497889e-07 -0.093819363)
(1.7074526e-06 1.8199336e-06 -0.094321641)
(3.629639e-06 7.8805571e-07 -0.09357777)
(3.7993169e-07 1.2083487e-06 -0.089643818)
(-0.0012759116 0.0054433131 -0.090673049)
(-1.2002194e-07 -7.344944e-08 -0.093712662)
(-4.0747781e-25 -1.4650788e-24 -0.095030466)
(2.2862049e-09 4.3816403e-07 -0.095094813)
(-1.8063756e-10 4.7128343e-07 -0.090915385)
(2.7459143e-08 1.9269699e-06 -0.095213677)
(9.5048141e-23 2.7520869e-23 -0.094520839)
(4.921399e-07 1.5673087e-06 -0.091757652)
(-1.3166149e-06 7.1919001e-07 -0.092005669)
(7.288877e-24 -2.5286407e-24 -0.094596006)
(3.5690925e-06 8.9066544e-07 -0.087684913)
(3.0928936e-07 -8.6860443e-07 -0.095264882)
(2.5309275e-08 1.6202738e-06 -0.090862879)
(4.9553121e-09 1.3711181e-06 -0.095020562)
(7.2135993e-09 9.7035047e-07 -0.090873783)
(-4.6023712e-07 -9.4052026e-07 -0.089788143)
(4.7438061e-13 -1.7816209e-12 -0.09500832)
(2.6843333e-05 -6.0508051e-06 -0.094089685)
(-1.9660916e-25 -3.9032721e-25 -0.094352433)
(4.9686224e-08 3.3647368e-06 -0.094318679)
(2.8316001e-06 5.1568819e-07 -0.093863394)
(1.6633346e-24 -1.663334e-24 -0.093521333)
(2.0047469e-24 -1.376333e-24 -0.094246129)
(-9.5514209e-26 -2.0002318e-27 -0.094093274)
(1.4988203e-07 -2.614092e-07 -0.095293892)
(6.8929198e-24 -6.7664768e-23 -0.094759233)
(-1.0244641e-32 4.2221987e-33 -0.093732207)
(2.8082898e-08 1.9203227e-06 -0.095203689)
(-2.0661291e-28 3.7349571e-27 -0.093826018)
(-1.179517e-13 -7.5936999e-14 -0.093617303)
(-1.1481156e-07 2.5762279e-08 -0.094926672)
(-1.512729e-07 -1.4354315e-06 -0.095388031)
(-1.0816231e-08 2.4270269e-09 -0.094673165)
(2.9940142e-06 -2.3490084e-06 -0.095703759)
(-8.5824326e-08 1.9257906e-08 -0.095150299)
(1.8496243e-08 1.2984652e-06 -0.09509216)
(3.9805315e-06 8.6424038e-07 -0.093449273)
(-0.00014031474 0.00028406626 -0.095359)
(1.0027914e-06 -5.8445658e-07 -0.094564147)
(1.3986241e-06 7.0448197e-07 -0.094282397)
(8.5396845e-25 -8.5049504e-25 -0.093504494)
(-1.0065891e-11 -6.3666057e-12 -0.094460577)
(5.0775636e-27 5.0951932e-27 -0.093887819)
(2.6078304e-06 -1.1992332e-06 -0.093714951)
(-5.8510498e-25 -8.1774913e-24 -0.094895805)
(2.5397852e-26 1.2633141e-26 -0.09408788)
(3.0489273e-23 -4.4830141e-23 -0.094904356)
(1.5374053e-13 -3.4497453e-14 -0.095555897)
(-3.9760799e-13 -2.6211514e-13 -0.093662797)
(5.4064302e-07 5.5659546e-07 -0.093932283)
(-2.3909662e-31 -2.3391242e-31 -0.093864459)
(2.4651068e-08 1.7223776e-06 -0.094327597)
(-3.6974975e-07 -5.9632286e-07 -0.094659254)
(4.3082664e-08 2.9543856e-06 -0.095264165)
(-8.0008054e-32 9.9065255e-31 -0.094010917)
(-3.7056539e-07 2.0237256e-07 -0.092354959)
(-5.3861316e-08 -2.7441242e-08 -0.093727939)
(4.7534986e-06 1.2963143e-06 -0.094410578)
(-5.0619257e-08 -6.7725041e-09 -0.093707114)
(2.7988205e-06 2.0117566e-06 -0.091265968)
(2.8311746e-06 -1.4447364e-06 -0.095727211)
(-1.108406e-06 -1.7876087e-06 -0.094907703)
(-7.1190913e-31 -2.9597676e-31 -0.093896737)
(-5.9050245e-13 -3.8756182e-13 -0.093642704)
(7.6318729e-11 1.3141369e-11 -0.094364643)
(-6.2976377e-08 -1.0156668e-07 -0.095089554)
(-5.374193e-30 1.3258752e-30 -0.094097985)
(9.855461e-27 5.0773389e-25 -0.093830781)
(5.9810649e-07 1.2985884e-07 -0.091535812)
(0.0015940493 -0.0049813343 -0.1069618)
(1.1784246e-09 2.8176204e-09 -0.094563499)
(-3.5888843e-26 -1.5342335e-26 -0.094189123)
(4.9321175e-13 -1.1067055e-13 -0.095426034)
(2.7533015e-07 -1.6047226e-07 -0.094473985)
(-4.980325e-11 -3.9787482e-11 -0.092667418)
(2.3561616e-07 5.1155124e-08 -0.091436904)
(-9.9844761e-33 4.6216424e-33 -0.093728747)
(-7.2263278e-10 4.2907408e-10 -0.092472403)
(-4.911145e-26 1.6330446e-24 -0.093265659)
(-5.6635517e-11 2.2290681e-07 -0.090894999)
(5.0587181e-06 -4.710927e-06 -0.095658532)
(-3.8211557e-08 -7.6135453e-08 -0.095472859)
(2.6172167e-10 -2.8800232e-11 -0.091458409)
(1.883635e-06 1.6047872e-06 -0.091292223)
(-6.2847522e-07 -1.0135886e-06 -0.094491133)
(-7.7027632e-12 1.2954265e-13 -0.09364491)
(1.1271288e-06 1.7483223e-06 -0.093535656)
(3.0233555e-07 4.5713234e-07 -0.092878845)
(-4.7892957e-10 3.2255994e-10 -0.094578122)
(3.090088e-07 2.2019123e-06 -0.094998598)
(2.1957442e-06 4.7673302e-07 -0.093929124)
(-9.1821127e-11 1.2281661e-07 -0.090890623)
(1.9000281e-23 -1.0377686e-22 -0.09448737)
(4.9944472e-06 6.1850476e-06 -0.093542895)
(-1.3987857e-32 1.7461352e-31 -0.094308341)
(1.4639271e-10 6.4312038e-11 -0.094407305)
(3.9593373e-06 5.6569804e-06 -0.094309551)
(7.3514154e-11 -4.8723952e-11 -0.091979153)
(-1.4467781e-06 -2.3333265e-06 -0.09451763)
(-3.8359081e-30 1.5779673e-30 -0.094113008)
(3.2226686e-24 -1.7875795e-24 -0.092737743)
(2.5107173e-06 -2.9163897e-06 -0.093996096)
(-4.1537698e-06 2.2685852e-06 -0.091062306)
(8.918281e-08 1.3486653e-07 -0.093141377)
(8.1545367e-06 3.438943e-06 -0.092893996)
(5.1159132e-06 -4.7248624e-06 -0.095648555)
(4.5471148e-06 9.8725514e-07 -0.093631379)
(2.6425892e-06 2.631071e-06 -0.09353763)
(-1.7731094e-06 2.0351982e-06 -0.091857785)
(5.1364088e-07 1.6354769e-06 -0.092929907)
(-2.1967226e-31 2.154203e-31 -0.093857001)
(1.0966825e-05 2.1118608e-05 -0.091763836)
(8.5826609e-06 4.287e-06 -0.093549427)
(6.286206e-07 1.1495772e-06 -0.092883111)
(-1.2322302e-10 7.1935162e-11 -0.094519026)
(1.2259857e-08 1.5200435e-06 -0.094418144)
(1.1355905e-08 1.0533999e-06 -0.090917582)
(-4.3069428e-24 5.0165048e-25 -0.094911964)
(-2.354613e-08 8.8385347e-08 -0.094119197)
(-5.0937232e-10 3.1524613e-07 -0.090753161)
(5.6266247e-06 -1.1930584e-07 -0.095737093)
(-6.7836893e-31 4.2592599e-31 -0.093884472)
(7.0883035e-07 7.8995968e-08 -0.09367776)
(2.5581335e-07 2.8510201e-08 -0.0943127)
(1.0043301e-10 1.6233918e-11 -0.094358903)
(-4.729551e-06 -3.8874259e-08 -0.09228845)
(8.6759842e-07 -5.0556502e-07 -0.092928563)
(3.8467615e-06 4.1868443e-06 -0.094296163)
(4.0793308e-06 7.9339855e-06 -0.094809843)
(0.0072805578 0.0030379848 -0.10088458)
(9.3641958e-08 2.0214175e-07 -0.09234008)
(7.4164356e-25 -1.0299217e-24 -0.093179852)
(7.7373321e-11 8.6229535e-12 -0.094340114)
(7.0033012e-25 -7.0032982e-25 -0.094062592)
(8.6550392e-08 1.8604121e-07 -0.093256266)
(2.3079607e-06 6.8150617e-08 -0.089838729)
(3.338543e-06 4.6711765e-07 -0.093784317)
(-5.4117882e-07 1.8574272e-07 -0.090819934)
(1.1688317e-09 8.2051489e-08 -0.094778464)
(3.4661214e-06 1.9350439e-07 -0.095746947)
(9.8171544e-08 1.4541287e-06 -0.095106348)
(-0.00010487499 -2.9847494e-05 -0.095089999)
(-2.3324136e-11 -8.1119119e-12 -0.093401767)
(-3.6315995e-08 8.1488552e-09 -0.095200831)
(5.3762163e-06 2.8327701e-06 -0.087235765)
(-4.6638473e-06 -3.8293453e-08 -0.092210426)
(2.5652016e-06 -1.4949752e-06 -0.093094851)
(4.3335338e-06 5.5009307e-07 -0.09383189)
(1.5300624e-05 1.1621375e-05 -0.093222844)
(1.48566e-05 2.8140292e-05 -0.091519829)
(4.5162285e-07 8.3859666e-08 -0.093831823)
(2.6935354e-23 4.5738991e-23 -0.094585104)
(8.6659897e-09 6.0837193e-07 -0.094695097)
(3.8718815e-07 -1.4169309e-06 -0.0922364)
(1.0059038e-12 1.7168379e-12 -0.092708867)
(1.1439523e-10 1.8449341e-10 -0.09460645)
(3.9411215e-08 1.2508175e-07 -0.090057451)
(2.0767255e-06 3.2061116e-06 -0.093525895)
(4.4417994e-25 -2.5463635e-24 -0.094651101)
(1.0406905e-05 1.639154e-05 -0.089865175)
(2.9792917e-13 -6.6851583e-14 -0.095018898)
(2.560667e-06 -7.8637942e-07 -0.08988149)
(-6.9538136e-31 -6.9014529e-31 -0.093898307)
(-6.420077e-07 -5.0944016e-09 -0.094285061)
(3.0620013e-06 3.4127102e-07 -0.094487725)
(-7.3589556e-11 6.2246454e-07 -0.090934145)
(1.978555e-10 2.4061238e-11 -0.09443995)
(8.1720408e-25 -8.1317727e-25 -0.093348086)
(-8.647454e-09 1.9403806e-09 -0.095271893)
(2.5135056e-07 7.9960518e-07 -0.089489394)
(1.0883043e-09 1.4113351e-09 -0.094517775)
(5.8364024e-06 5.5488741e-06 -0.095049859)
(4.1119668e-06 8.9277719e-07 -0.093111318)
(3.0520625e-23 -6.2410397e-24 -0.094605609)
(3.1255387e-07 4.7301333e-07 -0.092728616)
(1.32958e-09 1.1483481e-06 -0.090863565)
(3.7544297e-06 -9.2135015e-08 -0.093551172)
(3.1609108e-08 2.6741512e-06 -0.094405067)
(1.5798508e-07 3.4301219e-08 -0.093600578)
(1.2440604e-06 -8.9872361e-07 -0.09351252)
(6.987634e-32 7.3466879e-32 -0.094082717)
(1.7297145e-23 5.9931674e-24 -0.094631812)
(-1.2962247e-27 3.4087504e-27 -0.093762175)
(1.067624e-06 1.0673094e-06 -0.092862366)
(2.3125606e-06 1.1579359e-06 -0.092867836)
(2.8101085e-05 1.3939547e-06 -0.09411152)
(-2.7700657e-17 1.0403474e-16 -0.094763331)
(6.1385027e-06 -3.9370338e-06 -0.093570159)
(-8.312781e-08 1.8652841e-08 -0.095208766)
(-4.4858649e-06 2.808533e-06 -0.091846489)
(3.5608877e-06 5.2717202e-06 -0.093515264)
(0.00025274413 -0.00017484108 -0.094646483)
(-1.8424035e-31 2.4677713e-31 -0.094250856)
(2.0614777e-07 4.4478859e-07 -0.093011978)
(-4.6789421e-32 4.6269904e-32 -0.094009723)
(-3.5077493e-08 -5.8653483e-08 -0.09528283)
(-8.9182468e-06 5.0216679e-06 -0.092139777)
(-3.6441896e-13 -2.3289969e-13 -0.093485829)
(3.500675e-24 1.9317706e-24 -0.093456719)
(-1.7851201e-27 1.7853238e-27 -0.093646104)
(-7.1042755e-07 3.8693516e-08 -0.090898531)
(-1.7677715e-24 1.193193e-23 -0.095028401)
(-9.6606016e-33 4.4644613e-33 -0.093726001)
(8.6029752e-07 2.7386176e-06 -0.091912179)
(8.7996256e-08 2.7959021e-07 -0.089421289)
(2.12954e-08 2.244574e-06 -0.094404118)
(6.2458038e-06 2.3207298e-06 -0.088117797)
(9.5094742e-06 1.0401226e-05 -0.09454661)
(-1.2610179e-06 -1.0314632e-08 -0.092289186)
(-1.0219623e-11 -6.4638401e-12 -0.094046089)
(-2.829081e-25 8.2597607e-26 -0.094886514)
(-1.3773371e-08 3.0905724e-09 -0.095265227)
(-7.305978e-08 -5.9935204e-10 -0.092405789)
(4.6685553e-08 1.0136219e-08 -0.09366794)
(-7.866815e-06 4.3776435e-06 -0.092026821)
(1.7919511e-08 1.2579784e-06 -0.095087276)
(-6.4314434e-07 -1.0372466e-06 -0.094422195)
(-8.2461574e-05 0.00013148368 -0.094916752)
(-7.1721182e-08 1.6093337e-08 -0.095217015)
(7.6662386e-06 9.6390912e-06 -0.091756802)
(9.1506899e-08 1.9867688e-08 -0.093601745)
(1.6671721e-06 -3.4491883e-07 -0.092536698)
(2.7936921e-05 -5.4025419e-06 -0.09402622)
(4.5544266e-07 -1.3892623e-07 -0.09392745)
(3.9371278e-06 -4.5705894e-06 -0.095704524)
(4.4562976e-07 9.675372e-08 -0.093755243)
(2.8765253e-08 2.6607298e-06 -0.094363785)
(1.3614143e-05 -1.6276859e-06 -0.093829041)
(2.0540266e-07 1.5666261e-07 -0.095078634)
(5.5041086e-06 -1.9090427e-06 -0.091725541)
(1.9887275e-06 2.2163478e-07 -0.094010809)
(4.3191807e-10 6.401241e-11 -0.091381302)
(2.3672206e-24 -1.813659e-25 -0.094206354)
(2.7681805e-06 2.0146866e-06 -0.095024279)
(1.4322531e-07 3.0993547e-07 -0.09251237)
(4.8771067e-06 1.2106026e-06 -0.091318138)
(-9.8603094e-08 2.2125302e-08 -0.095211388)
(2.0991211e-07 -2.9170991e-08 -0.094013153)
(-1.9101646e-08 7.184762e-08 -0.094762225)
(3.6943673e-09 9.9125082e-10 -0.094571495)
(-4.042418e-23 -1.5346783e-22 -0.094535814)
(9.6190583e-06 5.9970429e-06 -0.092818082)
(6.6350617e-07 -3.8671087e-07 -0.09452104)
(-9.0923724e-11 -6.1645261e-11 -0.092722757)
(-1.5450877e-25 -2.5833728e-23 -0.093451025)
(7.4265708e-06 -3.7808999e-06 -0.092202547)
(9.9521828e-05 -4.0496284e-05 -0.094950008)
(-3.1116669e-09 1.1699339e-08 -0.094885515)
(-8.1824282e-09 3.0788494e-08 -0.094937745)
(1.2280187e-05 1.7047576e-05 -0.09182641)
(-3.865618e-07 -2.2511506e-07 -0.093651416)
(2.3640622e-06 -3.0551779e-06 -0.094029743)
(1.4462279e-06 -1.0833036e-06 -0.089909875)
(3.0582898e-06 -1.8040425e-06 -0.095752956)
(5.2813363e-09 3.7075394e-07 -0.094905675)
(-1.5636655e-26 2.4872444e-17 -0.094364488)
(1.752069e-09 2.0388563e-07 -0.095201689)
(2.8861583e-06 -1.2920522e-06 -0.094023169)
(1.0476719e-05 -1.1220188e-06 -0.092873786)
(3.0818886e-06 6.6912988e-07 -0.093583561)
(4.9128904e-07 -2.8633532e-07 -0.094507245)
(-7.8515931e-06 4.2893857e-06 -0.091935293)
(4.5006474e-06 2.1100739e-06 -0.093535681)
(2.8885407e-10 2.0339407e-10 -0.092800516)
(-4.8578291e-07 -3.8505239e-09 -0.094262892)
(4.5640817e-07 -3.8386801e-07 -0.092555453)
(3.9566074e-08 8.5904605e-09 -0.093543308)
(3.067159e-25 -5.6020429e-26 -0.094113851)
(-1.8940292e-07 -6.3469189e-07 -0.094420291)
(-3.8757581e-07 -3.1133845e-09 -0.088753528)
(9.577226e-07 3.0486309e-06 -0.092778022)
(5.9923398e-06 2.8572804e-06 -0.093813067)
(-2.5323626e-31 1.1066518e-31 -0.09388417)
(-1.0237545e-07 -6.3448991e-08 -0.093727937)
(-1.4248991e-24 5.1745369e-25 -0.094159458)
(9.3502586e-06 1.3497316e-05 -0.094100339)
(5.9423473e-07 -3.4633786e-07 -0.094519137)
(-5.0649228e-10 4.1262408e-10 -0.092420009)
(2.1146537e-23 -5.0192459e-23 -0.094630671)
(4.7757999e-06 -5.8629848e-06 -0.093772456)
(1.0366403e-06 2.4025892e-06 -0.093917498)
(-7.1505978e-12 -4.5227029e-12 -0.094470074)
(3.5575845e-05 -2.1264967e-05 -0.094305681)
(2.8265282e-07 2.0903302e-07 -0.094985342)
(1.0765239e-09 2.6872821e-09 -0.0952381)
(-9.9136981e-08 5.4126931e-08 -0.091481891)
(2.3458421e-06 -9.5238904e-07 -0.092837221)
(-1.402812e-07 -4.1708031e-07 -0.08971146)
(2.0150913e-09 2.2437361e-09 -0.094734209)
(2.6622232e-26 6.5922097e-25 -0.093084816)
(4.3317327e-23 -5.1891087e-24 -0.094538195)
(0.0002550689 2.9725996e-05 -0.09452847)
(-1.4542448e-06 -3.2999777e-06 -0.095346722)
(-1.7930545e-24 -2.6844579e-24 -0.093427199)
(-4.015048e-06 2.3549565e-06 -0.093248574)
(-6.8250095e-14 -4.3583734e-12 -0.094434343)
(1.3607979e-06 2.0660447e-06 -0.094512776)
(1.2915288e-05 1.5270719e-05 -0.091771241)
(9.5464855e-06 -2.8519271e-07 -0.093844427)
(-3.9151967e-06 -3.1975431e-08 -0.093876237)
(3.8206467e-11 5.2961789e-12 -0.092758938)
(4.2047357e-07 9.1291889e-08 -0.094534191)
(5.0683604e-06 5.7668922e-06 -0.091822788)
(-7.3591839e-07 2.1156492e-07 -0.090724377)
(-1.4077276e-09 3.1587647e-10 -0.095375257)
(-2.5766276e-10 -2.4663213e-10 -0.092929684)
(2.7769328e-05 9.7907429e-06 -0.093895474)
(-1.1772485e-10 5.928387e-07 -0.092375411)
(-2.9369004e-06 1.6040237e-06 -0.09227192)
(5.0573165e-24 2.8990356e-26 -0.093329623)
(-8.542243e-14 -5.4029088e-14 -0.094256783)
(3.9534975e-06 -2.0153017e-06 -0.093500483)
(1.6382393e-06 -1.1960978e-06 -0.09403005)
(-1.0975425e-07 2.4627483e-08 -0.094772303)
(2.6030548e-06 2.9019129e-07 -0.094506614)
(1.2845599e-06 -7.2017113e-07 -0.093717469)
(2.9992693e-06 -1.5210362e-06 -0.092135926)
(-4.2948413e-09 9.6370871e-10 -0.095244905)
(-1.2016801e-06 -9.7922232e-09 -0.091255805)
(1.6001931e-06 -9.3264079e-07 -0.094537319)
(-5.1879256e-07 -5.7346619e-07 -0.09447801)
(-3.1229659e-26 2.3817686e-24 -0.093894013)
(-8.985436e-09 -2.4045178e-08 -0.095275189)
(-8.785199e-08 1.9712889e-08 -0.094754235)
(1.2380363e-09 2.6879851e-10 -0.09353357)
(-3.5404354e-10 4.2676289e-10 -0.092381305)
(-2.492052e-11 -4.9771383e-13 -0.093463746)
(2.309394e-08 1.7964086e-06 -0.090877562)
(1.6043405e-08 2.0304306e-06 -0.094408125)
(0.00013411949 0.00011742862 -0.089368935)
(-2.9558656e-06 2.0747238e-06 -0.093107919)
(-4.5342059e-08 1.0174191e-08 -0.095195301)
(5.0284788e-11 5.6041454e-12 -0.094305274)
(-1.2432064e-24 -3.8084886e-25 -0.094292953)
(-3.0473386e-31 -4.2600986e-32 -0.093882815)
(1.444404e-12 1.1771923e-12 -0.093428683)
(3.7239227e-06 3.2105019e-07 -0.093823231)
(-1.2882226e-11 -8.1479177e-12 -0.093445399)
(1.3947481e-26 4.8235285e-24 -0.093545055)
(-2.1987428e-07 5.2670687e-07 -0.094427986)
(1.2104495e-23 7.9601484e-24 -0.092629712)
(1.2962208e-06 2.8143134e-07 -0.093661782)
(-2.5203954e-10 1.5006824e-10 -0.092515368)
(7.98031e-07 -9.5771199e-07 -0.095723183)
(-7.0771307e-07 -1.1413814e-06 -0.094426495)
(-2.0643066e-08 4.6320461e-09 -0.095245793)
(2.3351304e-10 -1.3383831e-10 -0.092431731)
(-2.9581682e-08 6.6377597e-09 -0.094586012)
(-0.0037220757 0.0031930867 -0.081614357)
(3.0505487e-06 -1.7716489e-06 -0.093965427)
(-8.5884158e-08 -6.4306649e-10 -0.094394175)
(2.0347623e-06 6.4672207e-06 -0.092939051)
(2.4585269e-06 5.3378756e-07 -0.093613962)
(-8.9916347e-31 1.5279807e-31 -0.093897297)
(-3.603375e-10 -2.3646129e-10 -0.092680661)
(3.6126605e-06 -1.5465581e-06 -0.092694437)
(-3.5449327e-07 -2.0923799e-07 -0.093653644)
(-4.5588909e-07 6.8614501e-07 -0.094018065)
(5.7314982e-06 2.6150604e-06 -0.095069984)
(-4.8586759e-31 4.129623e-31 -0.093930742)
(5.6123291e-06 3.0319723e-06 -0.093537547)
(-4.7386711e-08 -2.9860137e-08 -0.093502184)
(-1.6241363e-28 1.6287265e-28 -0.093535405)
(6.0688777e-07 9.1755507e-07 -0.092742988)
(3.0107892e-26 1.3352845e-24 -0.093866398)
(-1.3502393e-06 -1.0978636e-08 -0.090166916)
(-2.2086271e-08 8.2214854e-08 -0.093576868)
(2.1174194e-08 1.4864658e-06 -0.095124176)
(-2.6272116e-08 5.8951344e-09 -0.094641838)
(1.873613e-05 3.343119e-05 -0.092222101)
(-6.9261406e-08 -4.3549931e-08 -0.093653165)
(5.2364768e-07 -1.591437e-07 -0.093955997)
(4.938859e-07 1.0723094e-07 -0.093747532)
(-2.3204033e-32 2.2824023e-32 -0.094023193)
(-3.2880935e-10 2.2260957e-10 -0.092555759)
(-7.3026719e-33 1.3807255e-33 -0.093710512)
(-1.3648853e-32 2.3645236e-33 -0.093768429)
(1.4607187e-07 1.6279056e-08 -0.093785677)
(0.0075644767 0.0014126582 0.086104209)
(4.4298107e-08 3.2735102e-06 -0.094325429)
(1.1590893e-06 2.5165779e-07 -0.094654354)
(5.2898917e-08 3.5756606e-06 -0.094316787)
(-5.8620104e-12 -3.7076805e-12 -0.093913084)
(2.4077861e-06 5.5866206e-06 -0.094074799)
(1.4508123e-10 6.3489e-11 -0.094417537)
(-1.6880393e-08 3.7877492e-09 -0.095247292)
(7.9478877e-08 1.7187895e-07 -0.092499403)
(3.2009379e-10 1.2483652e-11 -0.091348)
(-6.1899995e-09 2.3280687e-08 -0.094863651)
(1.3151022e-09 8.286442e-10 -0.094567409)
(-2.1130868e-12 -1.3758521e-12 -0.093439089)
(4.9275336e-06 6.0646433e-06 -0.093539889)
(1.6474764e-07 5.2222168e-07 -0.090948258)
(2.6284983e-06 3.2880604e-06 -0.093501752)
(1.4713816e-09 1.0704642e-09 -0.094803071)
(-6.124636e-07 -9.877655e-07 -0.094517388)
(1.8759361e-06 1.1701321e-07 -0.095744849)
(3.4784383e-06 4.5657307e-06 -0.094857918)
(2.9436704e-06 3.1214621e-06 -0.093811652)
(-3.538726e-08 -2.0230975e-08 -0.093732901)
(5.6807475e-24 -2.5166767e-25 -0.093401858)
(9.1218561e-06 1.1880379e-05 -0.089517098)
(1.1694669e-06 2.5391094e-07 -0.09367193)
(-1.9849933e-08 4.4540769e-09 -0.095245224)
(8.1649294e-08 1.7727436e-08 -0.094429855)
(1.0446749e-06 8.5729138e-07 -0.094429333)
(-2.8438613e-25 4.0369679e-15 -0.094330537)
(-0.00012596686 0.00018887349 -0.095222952)
(2.5701229e-24 1.5163617e-24 -0.093520775)
(-1.2774348e-30 9.0889132e-31 -0.094040607)
(4.5243036e-06 -3.2459859e-06 -0.091982656)
(-1.4397682e-06 1.0373647e-07 -0.090780646)
(5.7650343e-06 1.251686e-06 -0.093735275)
(2.6271603e-06 3.8864034e-07 -0.093731921)
(-1.9262444e-33 -6.4298096e-35 -0.093878613)
(0.0039135551 0.0017519323 -0.098903687)
(1.2525301e-26 1.0551068e-15 -0.094344701)
(-4.1250507e-31 -2.2967245e-32 -0.093937168)
(2.3674164e-05 2.7526097e-06 -0.094074579)
(-9.1642861e-31 -1.6977475e-31 -0.093908428)
(8.4718928e-06 4.8566121e-06 -0.094280799)
(1.3144609e-07 -8.8908579e-07 -0.095636845)
(6.241187e-25 -6.2411843e-25 -0.093596699)
(-6.722691e-31 3.2305813e-31 -0.093886134)
(-9.9633066e-11 6.5666192e-07 -0.090922194)
(-1.9873532e-25 -1.128584e-25 -0.094179284)
(0.00015941021 -0.00011598473 -0.094496749)
(6.5080389e-07 -3.7930868e-07 -0.094523727)
(3.0631454e-06 1.3920952e-06 -0.094361351)
(-5.4407421e-06 3.0704343e-06 -0.091866986)
(2.3688273e-10 3.8203719e-10 -0.094818288)
(-1.3371584e-32 4.7713175e-33 -0.093760356)
(2.187415e-26 6.584568e-16 -0.094344151)
(1.9072174e-06 2.969182e-06 -0.093536111)
(3.9052876e-06 4.4333696e-06 -0.095087741)
(-1.0693737e-24 9.7780126e-25 -0.094377082)
(-3.0021107e-08 1.1286327e-07 -0.094764336)
(3.0114959e-08 1.9397729e-06 -0.090789697)
(9.4922636e-07 -4.2929995e-07 -0.094043747)
(1.0588744e-06 1.2540773e-06 -0.094486563)
(1.353327e-06 -1.8436046e-06 -0.094008454)
(-0.00014014572 0.001034988 -0.096411942)