/*--------------------------------*- C++ -*----------------------------------*\
  =========                 |
  \\      /  F ield         | OpenFOAM: The Open Source CFD Toolbox
   \\    /   O peration     | Website:  https://openfoam.org
    \\  /    A nd           | Version:  7
     \\/     M anipulation  |
\*---------------------------------------------------------------------------*/
FoamFile
{
    version     2.0;
    format      ascii;
    class       volVectorField::Internal;
    location    "0.01";
    object      kinematicCloud:UTrans;
}
// * * * * * * * * * * * * * * * * * * * * * * * * * * * * * * * * * * * * * //

dimensions      [1 1 -1 0 0 0 0];

value           nonuniform List<vector> 
40
(
(-4.0558652e-10 -1.0206488e-10 -1.3915145e-07)
(2.8596053e-10 2.2008595e-10 -4.9414026e-07)
(6.3526637e-12 -1.1747446e-12 -4.3462978e-07)
(-7.5613458e-14 -4.7782829e-14 -2.306336e-07)
(6.4146342e-13 1.3927108e-13 -1.6746159e-07)
(-4.9720062e-12 -1.0795062e-12 -3.5427998e-07)
(4.6429923e-12 2.5023068e-12 -5.9453405e-07)
(-6.3735706e-13 -6.5795909e-12 -2.8623001e-07)
(-2.51454e-12 1.0216086e-11 -3.064155e-07)
(2.4010157e-12 -1.4879715e-12 -1.5341879e-07)
(-5.8166642e-15 2.1867915e-14 -1.7868426e-07)
(-5.0389333e-23 1.8924629e-22 -3.2388945e-07)
(-6.53735e-13 -1.054327e-12 -2.9103237e-07)
(1.0418852e-12 7.8140209e-13 -1.7769261e-07)
(-1.2269509e-12 6.7164054e-13 -1.4578681e-07)
(-4.2407578e-14 1.5261632e-13 -1.9175866e-07)
(9.0634218e-13 -5.2824416e-13 -1.3774337e-07)
(6.6285128e-14 -1.4873554e-14 -2.057622e-07)
(-7.7466229e-14 1.7382454e-14 -4.308624e-07)
(-3.7797783e-31 -3.9177765e-32 -3.9533768e-07)
(2.9134315e-34 -1.0175344e-34 -2.7637734e-07)
(1.6588788e-35 -9.6196741e-35 -3.6901338e-07)
(2.31916e-31 -2.4213665e-30 -3.636257e-07)
(4.4054767e-15 3.0927248e-13 -1.9793487e-07)
(-2.7317182e-15 -2.9328126e-13 -2.9672453e-07)
(-1.9454101e-14 -1.7746693e-12 -3.7084694e-07)
(-1.1629452e-12 2.3328378e-12 -3.5098169e-07)
(1.7585568e-12 1.4432982e-14 -1.3675632e-07)
(-1.4730334e-12 -4.4373003e-13 -1.7579586e-07)
(4.0907246e-13 8.3730972e-12 -3.833956e-07)
(-2.4440692e-12 -6.9777842e-12 -2.3216186e-07)
(2.4568831e-12 3.0390265e-12 -2.9132947e-07)
(1.1954727e-12 1.3385794e-13 -4.0919541e-07)
(-3.6935965e-12 6.2583103e-13 -4.7283134e-07)
(2.3206133e-12 -7.6763156e-13 -3.0271169e-07)
(-1.1459663e-17 6.7582743e-18 -1.5589387e-07)
(-1.167362e-12 3.2753288e-12 -1.4143077e-07)
(1.1713932e-12 -4.9909268e-12 -2.4697552e-07)
(3.1594592e-13 4.7787883e-13 -3.1337315e-07)
(-1.0533105e-28 1.0183966e-28 -2.689063e-07)
)
;


// ************************************************************************* //
