/*--------------------------------*- C++ -*----------------------------------*\
  =========                 |
  \\      /  F ield         | OpenFOAM: The Open Source CFD Toolbox
   \\    /   O peration     | Website:  https://openfoam.org
    \\  /    A nd           | Version:  7
     \\/     M anipulation  |
\*---------------------------------------------------------------------------*/
FoamFile
{
    version     2.0;
    format      ascii;
    class       volScalarField::Internal;
    location    "0.01";
    object      kinematicCloud:UCoeff;
}
// * * * * * * * * * * * * * * * * * * * * * * * * * * * * * * * * * * * * * //

dimensions      [1 0 0 0 0 0 0];

value           nonuniform List<scalar> 
40
(
1.319652e-06
2.6853803e-06
2.4044894e-06
2.0487894e-06
1.9334891e-06
3.2856987e-06
3.4246938e-06
1.5395649e-06
2.732821e-06
1.6601975e-06
1.5609098e-06
1.8444459e-06
1.5884224e-06
1.5601332e-06
1.5503904e-06
2.0769852e-06
1.4723094e-06
1.7614869e-06
2.3253702e-06
2.099472e-06
2.0675591e-06
2.002867e-06
1.9528532e-06
1.5033696e-06
1.6139283e-06
2.1149822e-06
3.3946487e-06
1.5280967e-06
2.0843452e-06
3.6446662e-06
1.3406424e-06
1.5351771e-06
2.0288312e-06
2.5884381e-06
2.9437068e-06
1.9250503e-06
1.5318476e-06
2.7445377e-06
3.456914e-06
2.8261156e-06
)
;


// ************************************************************************* //
