/*--------------------------------*- C++ -*----------------------------------*\
  =========                 |
  \\      /  F ield         | OpenFOAM: The Open Source CFD Toolbox
   \\    /   O peration     | Website:  https://openfoam.org
    \\  /    A nd           | Version:  7
     \\/     M anipulation  |
\*---------------------------------------------------------------------------*/
FoamFile
{
    version     2.0;
    format      ascii;
    class       volScalarField;
    location    "0.01";
    object      p;
}
// * * * * * * * * * * * * * * * * * * * * * * * * * * * * * * * * * * * * * //

dimensions      [0 2 -2 0 0 0 0];

internalField   nonuniform List<scalar> 
40
(
-1.8717498e-05
-0.83456609
1.4677278
0.36414355
-2.4910398
-5.8536827
-8.6599082
-18.837494
-31.032936
-33.934182
-35.903349
-36.544796
-33.822211
-34.146929
-36.189407
-49.077683
-51.110404
-53.300857
-54.466092
-52.082078
-64.891994
-66.191659
-63.638671
-74.944426
-75.420568
-83.694139
-85.666942
-88.592447
-90.802886
-94.586641
-95.356318
-92.743874
-92.130798
-90.036666
-91.923939
-95.357301
-97.520127
-99.894302
-118.50562
-122.0041
)
;

boundaryField
{
    sides
    {
        type            symmetry;
    }
    top
    {
        type            fixedFluxPressure;
        gradient        uniform -426.98379;
        value           uniform -123.60529;
    }
    bottom
    {
        type            fixedFluxPressure;
        gradient        uniform 241.65447;
        value           uniform 0.90618555;
    }
}


// ************************************************************************* //
