/*--------------------------------*- C++ -*----------------------------------*\
  =========                 |
  \\      /  F ield         | OpenFOAM: The Open Source CFD Toolbox
   \\    /   O peration     | Website:  https://openfoam.org
    \\  /    A nd           | Version:  7
     \\/     M anipulation  |
\*---------------------------------------------------------------------------*/
FoamFile
{
    version     2.0;
    format      ascii;
    class       surfaceScalarField;
    location    "0.01";
    object      phi.air;
}
// * * * * * * * * * * * * * * * * * * * * * * * * * * * * * * * * * * * * * //

dimensions      [0 3 -1 0 0 0 0];

internalField   nonuniform List<scalar> 
39
(
1.1134769e-10
1.6499512e-10
1.3501789e-10
1.7748073e-10
1.4923995e-10
2.0209609e-10
7.695391e-05
7.5355338e-05
1.6639532e-10
2.0473811e-10
1.66311e-10
2.1545661e-10
1.7444181e-10
2.2670164e-10
7.4471297e-05
2.4149449e-10
1.9220746e-10
2.6371302e-10
2.1853767e-10
7.5579707e-05
2.2882537e-10
2.8609441e-10
7.3395051e-05
2.7235415e-10
7.4037055e-05
2.9758329e-10
2.3713922e-10
2.5751596e-10
2.196815e-10
2.2847088e-10
1.5862677e-10
1.6779763e-10
1.3244097e-10
1.2962208e-10
8.8298305e-11
5.6751251e-11
3.0085737e-11
8.1393913e-05
1.6940659e-20
)
;

boundaryField
{
    sides
    {
        type            symmetry;
        value           nonuniform List<scalar> 
160
(
0
0
0
0
0
0
0
0
-1.3086212e-25
0
-4.4795281e-28
0
1.943758e-26
0
-1.482344e-26
0
1.0355721e-26
2.7274152e-28
0
5.9326176e-46
1.548408e-48
1.0424963e-48
0
-4.4640798e-27
5.2368189e-27
2.5173943e-26
-1.7682073e-26
0
7.1040624e-27
-6.6847268e-26
1.4973884e-25
0
-1.9622209e-27
-7.990898e-27
8.24094e-27
-1.1099021e-31
-4.5422388e-26
0
-3.8290738e-27
3.5738622e-42
0
0
0
0
0
0
0
0
-3.120038e-26
0
-1.206848e-28
0
-1.3624059e-26
0
-2.5277082e-26
0
2.0703991e-26
1.0909661e-27
0
-5.8440936e-45
3.8377396e-48
2.0833707e-49
0
6.9751246e-29
-5.5873307e-29
-2.7744193e-28
-8.8700437e-27
0
-2.1652e-26
3.4928267e-27
-3.509897e-26
0
1.5697767e-26
-4.5387562e-26
2.2984408e-26
-1.7279829e-31
-3.3094457e-26
0
2.8718053e-27
3.5738622e-42
0
0
0
0
0
0
0
0
1.3086212e-25
0
4.4795281e-28
0
-1.943758e-26
0
1.482344e-26
0
-1.0355721e-26
-2.7274152e-28
0
-5.9326176e-46
-1.548408e-48
-1.0424963e-48
0
4.4640798e-27
-5.2368189e-27
-2.5173943e-26
0
0
-7.1040624e-27
6.6847268e-26
-1.4973884e-25
0
1.9622209e-27
7.990898e-27
0
1.1099021e-31
0
0
3.8290738e-27
0
0
0
0
0
0
0
0
0
3.120038e-26
0
1.206848e-28
0
1.3624059e-26
0
2.5277082e-26
0
-2.0703991e-26
-1.0909661e-27
0
5.8440936e-45
-3.8377396e-48
-2.0833707e-49
0
-6.9751246e-29
5.5873307e-29
2.7744193e-28
0
0
2.1652e-26
-3.4928267e-27
3.509897e-26
0
-1.5697767e-26
4.5387562e-26
0
1.7279829e-31
0
0
-2.8718053e-27
0
)
;
    }
    top
    {
        type            calculated;
        value           uniform 0;
    }
    bottom
    {
        type            calculated;
        value           uniform 1.6940659e-21;
    }
}


// ************************************************************************* //
