/*--------------------------------*- C++ -*----------------------------------*\
  =========                 |
  \\      /  F ield         | OpenFOAM: The Open Source CFD Toolbox
   \\    /   O peration     | Website:  https://openfoam.org
    \\  /    A nd           | Version:  7
     \\/     M anipulation  |
\*---------------------------------------------------------------------------*/
FoamFile
{
    version     2.0;
    format      ascii;
    class       volVectorField;
    location    "0.01";
    object      U.air;
}
// * * * * * * * * * * * * * * * * * * * * * * * * * * * * * * * * * * * * * //

dimensions      [0 1 -1 0 0 0 0];

internalField   nonuniform List<vector> 
40
(
(1.8774035e-55 -2.0208456e-55 -0.014832474)
(6.9699971e-52 -7.4662653e-52 0.0010283711)
(-5.5446513e-47 5.9159761e-47 0.0024082829)
(4.3277821e-44 -1.11438e-43 -0.014547029)
(1.1919897e-40 -3.1305744e-39 -0.001306283)
(2.0179523e-35 -1.7231575e-34 -0.0077395465)
(1.0295458e-30 -8.1870071e-30 0.086403814)
(-6.8001925e-27 3.7315515e-26 0.26380332)
(-2.2554451e-22 9.4582055e-22 0.08078421)
(-4.6873164e-26 6.4054013e-26 0.00053841794)
(-7.9956941e-23 8.2322089e-23 -0.012912521)
(1.4286458e-23 -1.4251575e-23 -0.0036276117)
(-1.683827e-23 -2.2226891e-22 0.002928417)
(-1.0128813e-26 -6.408815e-27 -0.016371404)
(-1.8313377e-22 1.0703121e-22 0.11597806)
(1.633799e-25 -1.6384332e-25 0.10357103)
(1.4963125e-22 -7.4643812e-23 0.0012292946)
(7.9130908e-24 -1.9802587e-24 -0.015058703)
(2.3362939e-27 -5.8498953e-28 -0.00035099029)
(-2.177616e-27 5.4524196e-28 0.1132111)
(-4.4383343e-30 1.1115933e-30 0.083015194)
(-1.5281424e-33 -4.196665e-32 -0.00086551593)
(1.6966158e-29 1.0857771e-27 0.10562439)
(5.0386579e-25 3.2246875e-23 0.079741315)
(-4.0434237e-25 -3.8062226e-23 0.12065849)
(6.5087615e-23 -2.4897924e-22 0.097938997)
(-1.7276468e-23 4.9140377e-23 -0.01310144)
(-9.1497904e-23 9.1598495e-23 0.0042237361)
(-1.5693884e-22 -5.1466837e-23 -0.0042081602)
(2.5285357e-23 4.843576e-22 -0.011908012)
(-2.546164e-22 -1.0865842e-21 0.00044568234)
(-8.5634675e-25 -3.734363e-24 -0.022364862)
(1.1415359e-22 1.4263113e-23 -0.0095762764)
(-2.8720814e-22 1.6974668e-23 -0.0014929135)
(1.5878967e-22 -1.057402e-22 -0.011730467)
(-5.3733114e-23 5.3735661e-23 -0.0034286344)
(-1.3519698e-22 1.798362e-22 0.0034585612)
(-7.2681041e-24 7.2566229e-24 0.12640338)
(3.7451872e-23 1.1021312e-23 0.11254292)
(4.176002e-23 -4.1759094e-23 0.0016531882)
)
;

boundaryField
{
    sides
    {
        type            symmetry;
    }
    top
    {
        type            noSlip;
    }
    bottom
    {
        type            noSlip;
    }
}


// ************************************************************************* //
